REMARK  Name = 
REMARK  15 active torsions:
REMARK  status: ('A' for Active; 'I' for Inactive)
REMARK    1  A    between atoms: O_1  and  C_2
REMARK    2  A    between atoms: C_2  and  C_3
REMARK    3  A    between atoms: C_4  and  O_5
REMARK    4  A    between atoms: C_6  and  O_7
REMARK    5  A    between atoms: S_9  and  C_10
REMARK    6  A    between atoms: C_10  and  C_11
REMARK    7  A    between atoms: C_11  and  O_12
REMARK    8  A    between atoms: C_11  and  C_13
REMARK    9  A    between atoms: C_13  and  O_14
REMARK   10  A    between atoms: C_13  and  C_15
REMARK   11  A    between atoms: C_15  and  O_16
REMARK   12  A    between atoms: C_15  and  C_17
REMARK   13  A    between atoms: C_17  and  O_18
REMARK   14  A    between atoms: C_17  and  C_19
REMARK   15  A    between atoms: C_19  and  O_20
REMARK                            x       y       z     vdW  Elec       q    Type
REMARK                         _______ _______ _______ _____ _____    ______ ____
ROOT
ATOM      1  C   UNL     1       0.746   0.721  -0.416  0.00  0.00    +0.155 C 
ENDROOT
BRANCH   1   2
ATOM      2  O   UNL     1       0.350   1.667  -1.421  0.00  0.00    -0.388 OA
ATOM      3  H   UNL     1       1.175   2.076  -1.765  0.00  0.00    +0.210 HD
ENDBRANCH   1   2
BRANCH   1   4
ATOM      4  C   UNL     1      -0.509   0.247   0.332  0.00  0.00    +0.093 C 
BRANCH   4   9
ATOM      5  C   UNL     1      -2.740  -1.341   0.624  0.00  0.00    +0.094 C 
ATOM      6  C   UNL     1      -4.081  -0.808   0.109  0.00  0.00    +0.158 C 
ATOM      7  C   UNL     1      -3.759   0.552  -0.513  0.00  0.00    +0.153 C 
ATOM      8  C   UNL     1      -2.608   0.288  -1.476  0.00  0.00    +0.093 C 
ATOM      9  S   UNL     1      -1.483  -0.946  -0.694  0.00  0.00    -0.195 S 
BRANCH   6  10
ATOM     10  O   UNL     1      -5.024  -0.632   1.170  0.00  0.00    -0.388 OA
ATOM     11  H   UNL     1      -5.415  -1.511   1.340  0.00  0.00    +0.210 HD
ENDBRANCH   6  10
BRANCH   7  12
ATOM     12  O   UNL     1      -4.912   1.052  -1.198  0.00  0.00    -0.388 OA
ATOM     13  H   UNL     1      -5.625   1.003  -0.533  0.00  0.00    +0.210 HD
ENDBRANCH   7  12
BRANCH   5  14
ATOM     14  C   UNL     1      -2.746  -2.844   0.913  0.00  0.00    +0.171 C 
BRANCH  14  15
ATOM     15  O   UNL     1      -3.213  -3.604  -0.198  0.00  0.00    -0.394 OA
ATOM     16  H   UNL     1      -2.614  -3.407  -0.947  0.00  0.00    +0.209 HD
ENDBRANCH  14  15
ENDBRANCH   5  14
ENDBRANCH   4   9
ENDBRANCH   1   4
BRANCH   1  17
ATOM     17  C   UNL     1       1.792   1.380   0.530  0.00  0.00    +0.175 C 
BRANCH  17  18
ATOM     18  O   UNL     1       1.988   0.616   1.725  0.00  0.00    -0.387 OA
ATOM     19  H   UNL     1       2.556   1.150   2.319  0.00  0.00    +0.210 HD
ENDBRANCH  17  18
BRANCH  17  20
ATOM     20  C   UNL     1       3.152   1.605  -0.180  0.00  0.00    +0.176 C 
BRANCH  20  21
ATOM     21  O   UNL     1       2.952   2.271  -1.442  0.00  0.00    -0.387 OA
ATOM     22  H   UNL     1       3.440   1.717  -2.088  0.00  0.00    +0.210 HD
ENDBRANCH  20  21
BRANCH  20  23
ATOM     23  C   UNL     1       3.943   0.285  -0.388  0.00  0.00    +0.171 C 
BRANCH  23  24
ATOM     24  O   UNL     1       4.322   0.190  -1.777  0.00  0.00    -0.387 OA
ATOM     25  H   UNL     1       4.795  -0.655  -1.896  0.00  0.00    +0.210 HD
ENDBRANCH  23  24
BRANCH  23  26
ATOM     26  C   UNL     1       5.185   0.233   0.527  0.00  0.00    +0.189 C 
BRANCH  26  27
ATOM     27  O   UNL     1       4.821   0.345   1.899  0.00  0.00    -0.392 OA
ATOM     28  H   UNL     1       4.328  -0.468   2.157  0.00  0.00    +0.210 HD
ENDBRANCH  26  27
ENDBRANCH  23  26
ENDBRANCH  20  23
ENDBRANCH  17  20
ENDBRANCH   1  17
TORSDOF 15
REMARK  Name = 
REMARK  15 active torsions:
REMARK  status: ('A' for Active; 'I' for Inactive)
REMARK    1  A    between atoms: O_1  and  C_2
REMARK    2  A    between atoms: C_2  and  C_3
REMARK    3  A    between atoms: C_4  and  O_5
REMARK    4  A    between atoms: C_6  and  O_7
REMARK    5  A    between atoms: S_9  and  C_10
REMARK    6  A    between atoms: C_10  and  C_11
REMARK    7  A    between atoms: C_11  and  O_12
REMARK    8  A    between atoms: C_11  and  C_13
REMARK    9  A    between atoms: C_13  and  O_14
REMARK   10  A    between atoms: C_13  and  C_15
REMARK   11  A    between atoms: C_15  and  O_16
REMARK   12  A    between atoms: C_15  and  C_17
REMARK   13  A    between atoms: C_17  and  O_18
REMARK   14  A    between atoms: C_17  and  C_19
REMARK   15  A    between atoms: C_19  and  O_20
REMARK                            x       y       z     vdW  Elec       q    Type
REMARK                         _______ _______ _______ _____ _____    ______ ____
ROOT
ATOM      1 CL   UNL     1       0.000   0.000   0.000  0.00  0.00    +0.000 Cl
ENDROOT
TORSDOF 0
