REMARK  Name = 
REMARK  12 active torsions:
REMARK  status: ('A' for Active; 'I' for Inactive)
REMARK    1  A    between atoms: C_1  and  C_2
REMARK    2  A    between atoms: C_4  and  O_5
REMARK    3  A    between atoms: C_6  and  O_7
REMARK    4  A    between atoms: C_8  and  O_9
REMARK    5  A    between atoms: C_10  and  N_11
REMARK    6  A    between atoms: N_11  and  C_12
REMARK    7  A    between atoms: C_14  and  O_15
REMARK    8  A    between atoms: C_14  and  C_16
REMARK    9  A    between atoms: C_16  and  O_17
REMARK   10  A    between atoms: C_18  and  O_19
REMARK   11  A    between atoms: C_20  and  O_21
REMARK   12  A    between atoms: C_22  and  O_23
REMARK                            x       y       z     vdW  Elec       q    Type
REMARK                         _______ _______ _______ _____ _____    ______ ____
ROOT
ATOM      1  C   UNL     1      -0.800  -0.589  -0.133  0.00  0.00    +0.088 C 
ATOM      2  C   UNL     1      -1.544   0.132   1.020  0.00  0.00    +0.061 C 
ATOM      3  C   UNL     1      -2.830   0.830   0.560  0.00  0.00    +0.119 C 
ATOM      4  C   UNL     1      -3.831  -0.173  -0.087  0.00  0.00    +0.179 C 
ATOM      5  C   UNL     1      -3.183  -1.503  -0.536  0.00  0.00    +0.176 C 
ATOM      6  C   UNL     1      -1.802  -1.246  -1.141  0.00  0.00    +0.162 C 
ENDROOT
BRANCH   1   7
ATOM      7  N   UNL     1       0.055   0.351  -0.900  0.00  0.00    -0.305 NA
ATOM      8  H   UNL     1      -0.368   1.284  -0.761  0.00  0.00    +0.123 HD
BRANCH   7  15
ATOM      9  C   UNL     1       1.794  -0.607   1.823  0.00  0.00    +0.009 C 
ATOM     10  C   UNL     1       1.955   0.622   0.917  0.00  0.00    +0.008 C 
ATOM     11  C   UNL     1       3.435   1.096   0.943  0.00  0.00    +0.039 C 
ATOM     12  C   UNL     1       4.301   0.582  -0.212  0.00  0.00    +0.146 C 
ATOM     13  C   UNL     1       3.780  -0.730  -0.792  0.00  0.00    +0.173 C 
ATOM     14  C   UNL     1       2.366  -0.555  -1.364  0.00  0.00    +0.163 C 
ATOM     15  C   UNL     1       1.492   0.452  -0.557  0.00  0.00    +0.088 C 
BRANCH  12  16
ATOM     16  O   UNL     1       5.642   0.405   0.250  0.00  0.00    -0.389 OA
ATOM     17  H   UNL     1       6.085  -0.112  -0.453  0.00  0.00    +0.210 HD
ENDBRANCH  12  16
BRANCH  13  18
ATOM     18  O   UNL     1       4.673  -1.172  -1.832  0.00  0.00    -0.387 OA
ATOM     19  H   UNL     1       4.259  -1.980  -2.193  0.00  0.00    +0.210 HD
ENDBRANCH  13  18
BRANCH  14  20
ATOM     20  O   UNL     1       1.760  -1.848  -1.470  0.00  0.00    -0.388 OA
ATOM     21  H   UNL     1       0.867  -1.667  -1.818  0.00  0.00    +0.210 HD
ENDBRANCH  14  20
ENDBRANCH   7  15
ENDBRANCH   1   7
BRANCH   3  22
ATOM     22  O   UNL     1      -2.444   1.824  -0.420  0.00  0.00    -0.384 OA
ATOM     23  H   UNL     1      -3.284   2.167  -0.785  0.00  0.00    +0.210 HD
ENDBRANCH   3  22
BRANCH   4  24
ATOM     24  O   UNL     1      -4.463   0.473  -1.206  0.00  0.00    -0.386 OA
ATOM     25  H   UNL     1      -3.805   0.420  -1.938  0.00  0.00    +0.210 HD
ENDBRANCH   4  24
BRANCH   5  26
ATOM     26  O   UNL     1      -3.080  -2.414   0.560  0.00  0.00    -0.387 OA
ATOM     27  H   UNL     1      -3.967  -2.791   0.704  0.00  0.00    +0.210 HD
ENDBRANCH   5  26
BRANCH   6  28
ATOM     28  O   UNL     1      -1.973  -0.422  -2.311  0.00  0.00    -0.388 OA
ATOM     29  H   UNL     1      -1.152   0.118  -2.333  0.00  0.00    +0.210 HD
ENDBRANCH   6  28
BRANCH   3  30
ATOM     30  C   UNL     1      -3.529   1.564   1.730  0.00  0.00    +0.193 C 
BRANCH  30  31
ATOM     31  O   UNL     1      -2.636   2.452   2.399  0.00  0.00    -0.392 OA
ATOM     32  H   UNL     1      -3.161   2.965   3.037  0.00  0.00    +0.210 HD
ENDBRANCH  30  31
ENDBRANCH   3  30
TORSDOF 11
