REMARK  Name = 
REMARK  13 active torsions:
REMARK  status: ('A' for Active; 'I' for Inactive)
REMARK    1  A    between atoms: C_1  and  O_2
REMARK    2  A    between atoms: O_2  and  C_3
REMARK    3  A    between atoms: C_5  and  C_6
REMARK    4  A    between atoms: C_7  and  N_8
REMARK    5  A    between atoms: N_8  and  C_9
REMARK    6  A    between atoms: C_11  and  O_12
REMARK    7  A    between atoms: C_11  and  C_13
REMARK    8  A    between atoms: C_13  and  O_14
REMARK    9  A    between atoms: C_15  and  O_16
REMARK   10  A    between atoms: C_17  and  O_18
REMARK   11  A    between atoms: C_19  and  O_20
REMARK   12  A    between atoms: C_21  and  O_22
REMARK   13  A    between atoms: C_23  and  O_24
REMARK                            x       y       z     vdW  Elec       q    Type
REMARK                         _______ _______ _______ _____ _____    ______ ____
ROOT
ATOM      1  C   UNL     1      -0.843   0.452   0.726  0.00  0.00    +0.088 C 
ATOM      2  C   UNL     1      -1.828   0.799  -0.411  0.00  0.00    +0.061 C 
ATOM      3  C   UNL     1      -3.270   0.360  -0.105  0.00  0.00    +0.119 C 
ATOM      4  C   UNL     1      -3.360  -1.166   0.190  0.00  0.00    +0.179 C 
ATOM      5  C   UNL     1      -1.993  -1.815   0.465  0.00  0.00    +0.176 C 
ATOM      6  C   UNL     1      -1.121  -0.940   1.363  0.00  0.00    +0.162 C 
ENDROOT
BRANCH   1   7
ATOM      7  N   UNL     1       0.574   0.711   0.392  0.00  0.00    -0.303 NA
ATOM      8  H   UNL     1       1.113   0.407   1.211  0.00  0.00    +0.123 HD
BRANCH   7  13
ATOM      9  C   UNL     1       3.615   1.245  -0.717  0.00  0.00    +0.281 C 
ATOM     10  O   UNL     1       3.597  -0.159  -0.983  0.00  0.00    -0.344 OA
ATOM     11  C   UNL     1       2.414  -0.806  -0.473  0.00  0.00    +0.138 C 
ATOM     12  C   UNL     1       2.393  -2.209  -1.083  0.00  0.00    +0.039 C 
ATOM     13  C   UNL     1       1.095  -0.022  -0.793  0.00  0.00    +0.114 C 
ATOM     14  C   UNL     1       1.370   0.999  -1.924  0.00  0.00    +0.167 C 
ATOM     15  C   UNL     1       2.525   1.956  -1.563  0.00  0.00    +0.200 C 
BRANCH   9  17
ATOM     16  C   UNL     1       4.590   1.173   1.441  0.00  0.00    +0.197 C 
ATOM     17  O   UNL     1       3.448   1.530   0.676  0.00  0.00    -0.352 OA
ENDBRANCH   9  17
BRANCH  14  18
ATOM     18  O   UNL     1       1.653   0.297  -3.147  0.00  0.00    -0.387 OA
ATOM     19  H   UNL     1       2.545  -0.088  -3.064  0.00  0.00    +0.210 HD
ENDBRANCH  14  18
BRANCH  15  20
ATOM     20  O   UNL     1       2.033   3.122  -0.883  0.00  0.00    -0.384 OA
ATOM     21  H   UNL     1       1.771   2.788   0.002  0.00  0.00    +0.210 HD
ENDBRANCH  15  20
ENDBRANCH   7  13
ENDBRANCH   1   7
BRANCH   3  22
ATOM     22  O   UNL     1      -4.092   0.659  -1.259  0.00  0.00    -0.384 OA
ATOM     23  H   UNL     1      -3.791   0.054  -1.970  0.00  0.00    +0.210 HD
ENDBRANCH   3  22
BRANCH   4  24
ATOM     24  O   UNL     1      -3.931  -1.859  -0.939  0.00  0.00    -0.386 OA
ATOM     25  H   UNL     1      -4.858  -1.551  -0.988  0.00  0.00    +0.210 HD
ENDBRANCH   4  24
BRANCH   5  26
ATOM     26  O   UNL     1      -2.176  -3.089   1.106  0.00  0.00    -0.387 OA
ATOM     27  H   UNL     1      -2.776  -3.592   0.518  0.00  0.00    +0.210 HD
ENDBRANCH   5  26
BRANCH   6  28
ATOM     28  O   UNL     1       0.098  -1.632   1.672  0.00  0.00    -0.388 OA
ATOM     29  H   UNL     1      -0.184  -2.548   1.871  0.00  0.00    +0.210 HD
ENDBRANCH   6  28
BRANCH   3  30
ATOM     30  C   UNL     1      -3.860   1.186   1.056  0.00  0.00    +0.193 C 
BRANCH  30  31
ATOM     31  O   UNL     1      -5.252   0.901   1.187  0.00  0.00    -0.392 OA
ATOM     32  H   UNL     1      -5.625   1.070   0.299  0.00  0.00    +0.210 HD
ENDBRANCH  30  31
ENDBRANCH   3  30
TORSDOF 11
