REMARK  Name = 
REMARK  11 active torsions:
REMARK  status: ('A' for Active; 'I' for Inactive)
REMARK    1  A    between atoms: O_1  and  C_2
REMARK    2  A    between atoms: C_2  and  CA_3
REMARK    3  A    between atoms: CA_3  and  N_4
REMARK    4  A    between atoms: CA_3  and  C_17
REMARK    5  A    between atoms: N_4  and  C_5
REMARK    6  A    between atoms: C_7  and  O_8
REMARK    7  A    between atoms: C_7  and  C_9
REMARK    8  A    between atoms: C_9  and  O_10
REMARK    9  A    between atoms: C_11  and  O_12
REMARK   10  A    between atoms: C_13  and  O_14
REMARK   11  A    between atoms: C_15  and  O_16
REMARK                            x       y       z     vdW  Elec       q    Type
REMARK                         _______ _______ _______ _____ _____    ______ ____
ROOT
ATOM      1  C   UNL     1      -0.468   0.519   0.105  0.00  0.00    +0.088 C 
ATOM      2  C   UNL     1      -1.438  -0.682   0.098  0.00  0.00    +0.061 C 
ATOM      3  C   UNL     1      -2.926  -0.263   0.074  0.00  0.00    +0.119 C 
ATOM      4  C   UNL     1      -3.099   1.165  -0.465  0.00  0.00    +0.179 C 
ATOM      5  C   UNL     1      -2.376   2.191   0.433  0.00  0.00    +0.176 C 
ATOM      6  C   UNL     1      -1.024   1.675   0.972  0.00  0.00    +0.162 C 
ENDROOT
BRANCH   1   7
ATOM      7  N   UNL     1       0.874   0.156   0.583  0.00  0.00    -0.302 NA
ATOM      8  H   UNL     1       0.834  -0.161   1.551  0.00  0.00    +0.123 HD
BRANCH   7   9
ATOM      9  CA  UNL     1       1.615  -0.783  -0.278  0.00  0.00    +0.110 C 
BRANCH   9  10
ATOM     10  C   UNL     1       3.032  -0.273  -0.560  0.00  0.00    -0.028 A 
ATOM     11  C   UNL     1       3.694   0.634   0.283  0.00  0.00    +0.005 A 
ATOM     12  C   UNL     1       4.994   1.061  -0.002  0.00  0.00    +0.000 A 
ATOM     13  C   UNL     1       5.657   0.582  -1.129  0.00  0.00    +0.000 A 
ATOM     14  C   UNL     1       5.022  -0.325  -1.974  0.00  0.00    +0.000 A 
ATOM     15  C   UNL     1       3.720  -0.747  -1.691  0.00  0.00    +0.005 A 
ENDBRANCH   9  10
BRANCH   9  16
ATOM     16  C   UNL     1       1.684  -2.207   0.337  0.00  0.00    +0.179 C 
BRANCH  16  17
ATOM     17  O   UNL     1       1.905  -3.193  -0.676  0.00  0.00    -0.393 OA
ATOM     18  H   UNL     1       2.013  -4.045  -0.218  0.00  0.00    +0.209 HD
ENDBRANCH  16  17
ENDBRANCH   9  16
ENDBRANCH   7   9
ENDBRANCH   1   7
BRANCH   3  19
ATOM     19  O   UNL     1      -3.395  -0.278   1.448  0.00  0.00    -0.384 OA
ATOM     20  H   UNL     1      -4.309   0.082   1.411  0.00  0.00    +0.210 HD
ENDBRANCH   3  19
BRANCH   4  21
ATOM     21  O   UNL     1      -4.494   1.510  -0.492  0.00  0.00    -0.386 OA
ATOM     22  H   UNL     1      -4.526   2.432  -0.818  0.00  0.00    +0.210 HD
ENDBRANCH   4  21
BRANCH   5  23
ATOM     23  O   UNL     1      -2.212   3.388  -0.343  0.00  0.00    -0.387 OA
ATOM     24  H   UNL     1      -1.817   4.054   0.248  0.00  0.00    +0.210 HD
ENDBRANCH   5  23
BRANCH   6  25
ATOM     25  O   UNL     1      -1.185   1.234   2.333  0.00  0.00    -0.388 OA
ATOM     26  H   UNL     1      -1.914   0.578   2.352  0.00  0.00    +0.210 HD
ENDBRANCH   6  25
BRANCH   3  27
ATOM     27  C   UNL     1      -3.780  -1.289  -0.694  0.00  0.00    +0.193 C 
BRANCH  27  28
ATOM     28  O   UNL     1      -3.612  -2.589  -0.126  0.00  0.00    -0.392 OA
ATOM     29  H   UNL     1      -3.684  -2.470   0.839  0.00  0.00    +0.210 HD
ENDBRANCH  27  28
ENDBRANCH   3  27
TORSDOF 11
