REMARK  Name = 
REMARK  12 active torsions:
REMARK  status: ('A' for Active; 'I' for Inactive)
REMARK    1  A    between atoms: O_1  and  C_2
REMARK    2  A    between atoms: C_2  and  CA_3
REMARK    3  A    between atoms: CA_3  and  CB_4
REMARK    4  A    between atoms: CA_3  and  N_6
REMARK    5  A    between atoms: CB_4  and  OG_5
REMARK    6  A    between atoms: N_6  and  C_7
REMARK    7  A    between atoms: C_9  and  O_10
REMARK    8  A    between atoms: C_9  and  C_11
REMARK    9  A    between atoms: C_11  and  O_12
REMARK   10  A    between atoms: C_13  and  O_14
REMARK   11  A    between atoms: C_15  and  O_16
REMARK   12  A    between atoms: C_17  and  O_18
REMARK                            x       y       z     vdW  Elec       q    Type
REMARK                         _______ _______ _______ _____ _____    ______ ____
ROOT
ATOM      1  C   UNK A   0       0.272  -0.511  -0.077  0.00  0.00    +0.088 C 
ATOM      2  C   UNK A   0      -0.313   0.516  -1.054  0.00  0.00    +0.061 C 
ATOM      3  C   UNK A   0      -1.778   0.862  -0.705  0.00  0.00    +0.119 C 
ATOM      4  C   UNK A   0      -2.561  -0.359  -0.148  0.00  0.00    +0.179 C 
ATOM      5  C   UNK A   0      -1.966  -1.668  -0.670  0.00  0.00    +0.176 C 
ATOM      6  C   UNK A   0      -0.518  -1.851  -0.191  0.00  0.00    +0.162 C 
ENDROOT
BRANCH   1   7
ATOM      7  N   SER A   1       1.706  -0.743  -0.363  0.00  0.00    -0.304 NA
ATOM      8  H   SER A   1       1.863  -1.756  -0.297  0.00  0.00    +0.123 HD
BRANCH   7   9
ATOM      9  CA  SER A   1       2.614  -0.095   0.631  0.00  0.00    +0.105 C 
BRANCH   9  10
ATOM     10  C   SER A   1       2.608   1.450   0.572  0.00  0.00    +0.176 C 
BRANCH  10  11
ATOM     11  O   SER A   1       1.450   1.988   1.211  0.00  0.00    -0.393 OA
ATOM     12  H   SER A   1       1.539   2.957   1.156  0.00  0.00    +0.209 HD
ENDBRANCH  10  11
ENDBRANCH   9  10
BRANCH   9  13
ATOM     13  CB  SER A   1       4.042  -0.602   0.332  0.00  0.00    +0.176 C 
BRANCH  13  14
ATOM     14  OG  SER A   1       4.401  -0.304  -1.016  0.00  0.00    -0.393 OA
ATOM     15  H   SER A   1       3.592  -0.476  -1.539  0.00  0.00    +0.209 HD
ENDBRANCH  13  14
ENDBRANCH   9  13
ENDBRANCH   7   9
ENDBRANCH   1   7
BRANCH   3  16
ATOM     16  O   UNK A   0      -2.405   1.279  -1.935  0.00  0.00    -0.384 OA
ATOM     17  H   UNK A   0      -3.364   1.268  -1.714  0.00  0.00    +0.210 HD
ENDBRANCH   3  16
BRANCH   4  18
ATOM     18  O   UNK A   0      -3.943  -0.293  -0.545  0.00  0.00    -0.386 OA
ATOM     19  H   UNK A   0      -4.304  -1.181  -0.345  0.00  0.00    +0.210 HD
ENDBRANCH   4  18
BRANCH   5  20
ATOM     20  O   UNK A   0      -2.769  -2.770  -0.210  0.00  0.00    -0.387 OA
ATOM     21  H   UNK A   0      -2.312  -3.576  -0.522  0.00  0.00    +0.210 HD
ENDBRANCH   5  20
BRANCH   6  22
ATOM     22  O   UNK A   0       0.138  -2.770  -1.085  0.00  0.00    -0.388 OA
ATOM     23  H   UNK A   0       0.448  -2.243  -1.847  0.00  0.00    +0.210 HD
ENDBRANCH   6  22
BRANCH   3  24
ATOM     24  C   UNK A   0      -1.834   2.060   0.271  0.00  0.00    +0.193 C 
BRANCH  24  25
ATOM     25  O   UNK A   0      -3.180   2.414   0.580  0.00  0.00    -0.392 OA
ATOM     26  H   UNK A   0      -3.151   3.247   1.080  0.00  0.00    +0.210 HD
ENDBRANCH  24  25
ENDBRANCH   3  24
TORSDOF 12
