REMARK  Name = 
REMARK  7 active torsions:
REMARK  status: ('A' for Active; 'I' for Inactive)
REMARK    1  A    between atoms: N_1  and  C_2
REMARK    2  A    between atoms: C_4  and  O_5
REMARK    3  A    between atoms: C_4  and  C_6
REMARK    4  A    between atoms: C_6  and  O_7
REMARK    5  A    between atoms: C_8  and  O_9
REMARK    6  A    between atoms: C_10  and  O_11
REMARK    7  A    between atoms: C_12  and  O_13
REMARK                            x       y       z     vdW  Elec       q    Type
REMARK                         _______ _______ _______ _____ _____    ______ ____
ROOT
ATOM      1  C   UNL     1      -1.173  -0.958  -0.216  0.00  0.00    +0.085 C 
ATOM      2  C   UNL     1       0.157  -0.825  -0.969  0.00  0.00    +0.060 C 
ATOM      3  C   UNL     1       1.185   0.025  -0.199  0.00  0.00    +0.119 C 
ATOM      4  C   UNL     1       0.578   1.403   0.152  0.00  0.00    +0.179 C 
ATOM      5  C   UNL     1      -0.748   1.307   0.925  0.00  0.00    +0.176 C 
ATOM      6  C   UNL     1      -1.772   0.421   0.184  0.00  0.00    +0.162 C 
ENDROOT
BRANCH   1   7
ATOM      7  N   UNL     1      -2.094  -1.738  -1.053  0.00  0.00    -0.325 NA
ATOM      8  H   UNL     1      -1.832  -2.723  -1.044  0.00  0.00    +0.119 HD
ATOM      9  H   UNL     1      -3.044  -1.670  -0.691  0.00  0.00    +0.119 HD
ENDBRANCH   1   7
BRANCH   3  10
ATOM     10  O   UNL     1       2.294   0.262  -1.109  0.00  0.00    -0.384 OA
ATOM     11  H   UNL     1       2.994   0.723  -0.609  0.00  0.00    +0.210 HD
ENDBRANCH   3  10
BRANCH   4  12
ATOM     12  O   UNL     1       0.347   2.122  -1.077  0.00  0.00    -0.386 OA
ATOM     13  H   UNL     1       1.095   1.891  -1.667  0.00  0.00    +0.210 HD
ENDBRANCH   4  12
BRANCH   5  14
ATOM     14  O   UNL     1      -0.507   0.814   2.243  0.00  0.00    -0.387 OA
ATOM     15  H   UNL     1      -1.321   0.970   2.758  0.00  0.00    +0.210 HD
ENDBRANCH   5  14
BRANCH   6  16
ATOM     16  O   UNL     1      -2.288   1.123  -0.951  0.00  0.00    -0.388 OA
ATOM     17  H   UNL     1      -1.523   1.438  -1.474  0.00  0.00    +0.210 HD
ENDBRANCH   6  16
BRANCH   3  18
ATOM     18  C   UNL     1       1.761  -0.718   1.025  0.00  0.00    +0.193 C 
BRANCH  18  19
ATOM     19  O   UNL     1       2.479  -1.882   0.604  0.00  0.00    -0.392 OA
ATOM     20  H   UNL     1       2.853  -1.680  -0.276  0.00  0.00    +0.210 HD
ENDBRANCH  18  19
ENDBRANCH   3  18
TORSDOF 7
