REMARK  Name = 
REMARK  12 active torsions:
REMARK  status: ('A' for Active; 'I' for Inactive)
REMARK    1  A    between atoms: C_1  and  C_2
REMARK    2  A    between atoms: C_4  and  N_5
REMARK    3  A    between atoms: C_6  and  O_7
REMARK    4  A    between atoms: C_8  and  O_9
REMARK    5  A    between atoms: C_10  and  N_11
REMARK    6  A    between atoms: N_11  and  C_12
REMARK    7  A    between atoms: C_14  and  O_15
REMARK    8  A    between atoms: C_14  and  C_16
REMARK    9  A    between atoms: C_16  and  O_17
REMARK   10  A    between atoms: C_18  and  O_19
REMARK   11  A    between atoms: C_20  and  O_21
REMARK   12  A    between atoms: C_22  and  O_23
REMARK                            x       y       z     vdW  Elec       q    Type
REMARK                         _______ _______ _______ _____ _____    ______ ____
ROOT
ATOM      1  C   UNL     1      -0.983  -0.063   0.023  0.00  0.00    +0.088 C 
ATOM      2  C   UNL     1      -2.067   1.039  -0.021  0.00  0.00    +0.061 C 
ATOM      3  C   UNL     1      -3.487   0.512   0.279  0.00  0.00    +0.119 C 
ATOM      4  C   UNL     1      -3.438  -0.808   1.066  0.00  0.00    +0.179 C 
ATOM      5  C   UNL     1      -2.729  -1.916   0.257  0.00  0.00    +0.176 C 
ATOM      6  C   UNL     1      -1.519  -1.400  -0.546  0.00  0.00    +0.162 C 
ENDROOT
BRANCH   1   7
ATOM      7  N   UNL     1       0.169   0.440  -0.729  0.00  0.00    -0.305 NA
ATOM      8  H   UNL     1       0.166   0.059  -1.681  0.00  0.00    +0.123 HD
BRANCH   7  15
ATOM      9  C   UNL     1       1.954   2.742  -0.811  0.00  0.00    +0.009 C 
ATOM     10  C   UNL     1       2.468   1.295  -0.811  0.00  0.00    +0.007 C 
ATOM     11  C   UNL     1       3.881   1.265  -0.185  0.00  0.00    +0.026 C 
ATOM     12  C   UNL     1       4.237  -0.072   0.480  0.00  0.00    +0.082 C 
ATOM     13  C   UNL     1       3.584  -1.252  -0.262  0.00  0.00    +0.161 C 
ATOM     14  C   UNL     1       2.047  -1.159  -0.153  0.00  0.00    +0.162 C 
ATOM     15  C   UNL     1       1.501   0.306  -0.107  0.00  0.00    +0.088 C 
BRANCH  12  16
ATOM     16  N   UNL     1       5.698  -0.201   0.580  0.00  0.00    -0.325 NA
ATOM     17  H   UNL     1       5.930  -1.041   1.104  0.00  0.00    +0.119 HD
ATOM     18  H   UNL     1       6.073   0.583   1.111  0.00  0.00    +0.119 HD
ENDBRANCH  12  16
BRANCH  13  19
ATOM     19  O   UNL     1       3.963  -1.246  -1.644  0.00  0.00    -0.388 OA
ATOM     20  H   UNL     1       4.422  -2.096  -1.819  0.00  0.00    +0.210 HD
ENDBRANCH  13  19
BRANCH  14  21
ATOM     21  O   UNL     1       1.663  -1.854   1.047  0.00  0.00    -0.388 OA
ATOM     22  H   UNL     1       0.697  -1.821   1.117  0.00  0.00    +0.210 HD
ENDBRANCH  14  21
ENDBRANCH   7  15
ENDBRANCH   1   7
BRANCH   3  23
ATOM     23  O   UNL     1      -4.119   0.241  -0.999  0.00  0.00    -0.384 OA
ATOM     24  H   UNL     1      -4.998  -0.140  -0.780  0.00  0.00    +0.210 HD
ENDBRANCH   3  23
BRANCH   4  25
ATOM     25  O   UNL     1      -4.773  -1.257   1.355  0.00  0.00    -0.386 OA
ATOM     26  H   UNL     1      -4.668  -2.107   1.826  0.00  0.00    +0.210 HD
ENDBRANCH   4  25
BRANCH   5  27
ATOM     27  O   UNL     1      -2.317  -2.925   1.194  0.00  0.00    -0.387 OA
ATOM     28  H   UNL     1      -2.067  -3.712   0.671  0.00  0.00    +0.210 HD
ENDBRANCH   5  27
BRANCH   6  29
ATOM     29  O   UNL     1      -1.873  -1.245  -1.928  0.00  0.00    -0.388 OA
ATOM     30  H   UNL     1      -2.616  -0.606  -1.977  0.00  0.00    +0.210 HD
ENDBRANCH   6  29
BRANCH   3  31
ATOM     31  C   UNL     1      -4.344   1.583   0.984  0.00  0.00    +0.193 C 
BRANCH  31  32
ATOM     32  O   UNL     1      -4.376   2.784   0.212  0.00  0.00    -0.392 OA
ATOM     33  H   UNL     1      -4.487   2.510  -0.719  0.00  0.00    +0.210 HD
ENDBRANCH  31  32
ENDBRANCH   3  31
TORSDOF 11
