REMARK  Name = 
REMARK  15 active torsions:
REMARK  status: ('A' for Active; 'I' for Inactive)
REMARK    1  A    between atoms: O_1  and  C_2
REMARK    2  A    between atoms: C_2  and  C_3
REMARK    3  A    between atoms: C_4  and  O_5
REMARK    4  A    between atoms: C_6  and  O_7
REMARK    5  A    between atoms: S_9  and  C_10
REMARK    6  A    between atoms: C_10  and  C_11
REMARK    7  A    between atoms: C_11  and  O_12
REMARK    8  A    between atoms: C_11  and  C_13
REMARK    9  A    between atoms: C_13  and  O_14
REMARK   10  A    between atoms: C_13  and  C_15
REMARK   11  A    between atoms: C_15  and  O_16
REMARK   12  A    between atoms: C_15  and  C_17
REMARK   13  A    between atoms: C_17  and  O_18
REMARK   14  A    between atoms: C_17  and  C_19
REMARK   15  A    between atoms: C_19  and  O_20
REMARK                            x       y       z     vdW  Elec       q    Type
REMARK                         _______ _______ _______ _____ _____    ______ ____
ROOT
ATOM      1  C   UNL     1       0.478  -0.737   1.286  0.00  0.00    +0.155 C 
ENDROOT
BRANCH   1   2
ATOM      2  O   UNL     1      -0.083  -1.946   1.842  0.00  0.00    -0.388 OA
ATOM      3  H   UNL     1       0.183  -2.646   1.209  0.00  0.00    +0.210 HD
ENDBRANCH   1   2
BRANCH   1   4
ATOM      4  C   UNL     1      -0.455  -0.218   0.182  0.00  0.00    +0.093 C 
BRANCH   4   9
ATOM      5  C   UNL     1      -2.690   1.084  -0.746  0.00  0.00    +0.094 C 
ATOM      6  C   UNL     1      -3.983   0.293  -0.930  0.00  0.00    +0.158 C 
ATOM      7  C   UNL     1      -3.642  -1.133  -0.502  0.00  0.00    +0.153 C 
ATOM      8  C   UNL     1      -3.016  -0.998   0.878  0.00  0.00    +0.093 C 
ATOM      9  S   UNL     1      -1.991   0.519   0.895  0.00  0.00    -0.195 S 
BRANCH   6  10
ATOM     10  O   UNL     1      -4.419   0.305  -2.288  0.00  0.00    -0.388 OA
ATOM     11  H   UNL     1      -5.096  -0.397  -2.344  0.00  0.00    +0.210 HD
ENDBRANCH   6  10
BRANCH   7  12
ATOM     12  O   UNL     1      -4.835  -1.916  -0.478  0.00  0.00    -0.388 OA
ATOM     13  H   UNL     1      -4.594  -2.792  -0.127  0.00  0.00    +0.210 HD
ENDBRANCH   7  12
BRANCH   5  14
ATOM     14  C   UNL     1      -2.930   2.592  -0.737  0.00  0.00    +0.171 C 
BRANCH  14  15
ATOM     15  O   UNL     1      -1.683   3.288  -0.779  0.00  0.00    -0.394 OA
ATOM     16  H   UNL     1      -1.889   4.233  -0.686  0.00  0.00    +0.209 HD
ENDBRANCH  14  15
ENDBRANCH   5  14
ENDBRANCH   4   9
ENDBRANCH   1   4
BRANCH   1  17
ATOM     17  C   UNL     1       1.901  -1.107   0.811  0.00  0.00    +0.175 C 
BRANCH  17  18
ATOM     18  O   UNL     1       1.784  -2.214  -0.106  0.00  0.00    -0.387 OA
ATOM     19  H   UNL     1       2.578  -2.157  -0.682  0.00  0.00    +0.210 HD
ENDBRANCH  17  18
BRANCH  17  20
ATOM     20  C   UNL     1       2.725   0.061   0.217  0.00  0.00    +0.176 C 
BRANCH  20  21
ATOM     21  O   UNL     1       2.233   0.380  -1.090  0.00  0.00    -0.387 OA
ATOM     22  H   UNL     1       2.489   1.301  -1.280  0.00  0.00    +0.210 HD
ENDBRANCH  20  21
BRANCH  20  23
ATOM     23  C   UNL     1       4.229  -0.315   0.124  0.00  0.00    +0.171 C 
BRANCH  23  24
ATOM     24  O   UNL     1       4.386  -1.534  -0.617  0.00  0.00    -0.387 OA
ATOM     25  H   UNL     1       5.338  -1.737  -0.665  0.00  0.00    +0.210 HD
ENDBRANCH  23  24
BRANCH  23  26
ATOM     26  C   UNL     1       5.072   0.792  -0.521  0.00  0.00    +0.189 C 
BRANCH  26  27
ATOM     27  O   UNL     1       4.949   2.019   0.184  0.00  0.00    -0.392 OA
ATOM     28  H   UNL     1       5.541   1.982   0.956  0.00  0.00    +0.210 HD
ENDBRANCH  26  27
ENDBRANCH  23  26
ENDBRANCH  20  23
ENDBRANCH  17  20
ENDBRANCH   1  17
TORSDOF 15
REMARK  Name = 
REMARK  15 active torsions:
REMARK  status: ('A' for Active; 'I' for Inactive)
REMARK    1  A    between atoms: O_1  and  C_2
REMARK    2  A    between atoms: C_2  and  C_3
REMARK    3  A    between atoms: C_4  and  O_5
REMARK    4  A    between atoms: C_6  and  O_7
REMARK    5  A    between atoms: S_9  and  C_10
REMARK    6  A    between atoms: C_10  and  C_11
REMARK    7  A    between atoms: C_11  and  O_12
REMARK    8  A    between atoms: C_11  and  C_13
REMARK    9  A    between atoms: C_13  and  O_14
REMARK   10  A    between atoms: C_13  and  C_15
REMARK   11  A    between atoms: C_15  and  O_16
REMARK   12  A    between atoms: C_15  and  C_17
REMARK   13  A    between atoms: C_17  and  O_18
REMARK   14  A    between atoms: C_17  and  C_19
REMARK   15  A    between atoms: C_19  and  O_20
REMARK                            x       y       z     vdW  Elec       q    Type
REMARK                         _______ _______ _______ _____ _____    ______ ____
ROOT
ATOM      1 CL   UNL     1       0.000   0.000   0.000  0.00  0.00    +0.000 Cl
ENDROOT
TORSDOF 0
