REMARK  Name = 
REMARK  18 active torsions:
REMARK  status: ('A' for Active; 'I' for Inactive)
REMARK    1  A    between atoms: C_1  and  C_2
REMARK    2  A    between atoms: C_2  and  C_3
REMARK    3  A    between atoms: C_2  and  C_4
REMARK    4  A    between atoms: C_2  and  C_5
REMARK    5  A    between atoms: C_7  and  C_8
REMARK    6  A    between atoms: C_8  and  N_9
REMARK    7  A    between atoms: N_9  and  C_10
REMARK    8  A    between atoms: C_12  and  O_13
REMARK    9  A    between atoms: C_12  and  C_14
REMARK   10  A    between atoms: C_14  and  O_15
REMARK   11  A    between atoms: C_16  and  O_17
REMARK   12  A    between atoms: C_18  and  O_19
REMARK   13  A    between atoms: C_20  and  O_21
REMARK   14  A    between atoms: C_23  and  C_24
REMARK   15  A    between atoms: C_24  and  C_25
REMARK   16  A    between atoms: C_24  and  C_26
REMARK   17  A    between atoms: C_24  and  C_27
REMARK   18  A    between atoms: C_28  and  O_29
REMARK                            x       y       z     vdW  Elec       q    Type
REMARK                         _______ _______ _______ _____ _____    ______ ____
ROOT
ATOM      1  N   UNL     1       1.426   0.547  -0.201  0.00  0.00    -0.307 NA
ATOM      2  H   UNL     1       1.271   0.109  -1.112  0.00  0.00    +0.123 HD
ENDROOT
BRANCH   1   3
ATOM      3  C   UNL     1       2.870   0.641   0.059  0.00  0.00    +0.088 C 
ATOM      4  C   UNL     1       3.537  -0.739   0.283  0.00  0.00    +0.061 C 
ATOM      5  C   UNL     1       5.058  -0.731   0.004  0.00  0.00    +0.119 C 
ATOM      6  C   UNL     1       5.627   0.683   0.218  0.00  0.00    +0.179 C 
ATOM      7  C   UNL     1       5.053   1.666  -0.821  0.00  0.00    +0.176 C 
ATOM      8  C   UNL     1       3.551   1.425  -1.096  0.00  0.00    +0.162 C 
BRANCH   5   9
ATOM      9  O   UNL     1       5.208  -1.108  -1.389  0.00  0.00    -0.384 OA
ATOM     10  H   UNL     1       5.206  -2.090  -1.381  0.00  0.00    +0.210 HD
ENDBRANCH   5   9
BRANCH   6  11
ATOM     11  O   UNL     1       7.059   0.704   0.140  0.00  0.00    -0.386 OA
ATOM     12  H   UNL     1       7.305   1.650   0.116  0.00  0.00    +0.210 HD
ENDBRANCH   6  11
BRANCH   7  13
ATOM     13  O   UNL     1       5.287   2.993  -0.320  0.00  0.00    -0.387 OA
ATOM     14  H   UNL     1       4.973   3.609  -1.008  0.00  0.00    +0.210 HD
ENDBRANCH   7  13
BRANCH   8  15
ATOM     15  O   UNL     1       3.394   0.703  -2.331  0.00  0.00    -0.388 OA
ATOM     16  H   UNL     1       4.011  -0.062  -2.299  0.00  0.00    +0.210 HD
ENDBRANCH   8  15
BRANCH   5  17
ATOM     17  C   UNL     1       5.802  -1.785   0.842  0.00  0.00    +0.193 C 
BRANCH  17  18
ATOM     18  O   UNL     1       5.267  -3.078   0.535  0.00  0.00    -0.392 OA
ATOM     19  H   UNL     1       5.789  -3.723   1.047  0.00  0.00    +0.210 HD
ENDBRANCH  17  18
ENDBRANCH   5  17
ENDBRANCH   1   3
BRANCH   1  20
ATOM     20  C   UNL     1       0.660  -0.138   0.832  0.00  0.00    +0.116 C 
BRANCH  20  23
ATOM     21  C   UNL     1      -2.892   1.207   0.328  0.00  0.00    +0.000 A 
ATOM     22  C   UNL     1      -1.515   1.121   0.593  0.00  0.00    +0.012 A 
ATOM     23  C   UNL     1      -0.820  -0.092   0.522  0.00  0.00    -0.033 A 
ATOM     24  C   UNL     1      -1.508  -1.250   0.141  0.00  0.00    +0.012 A 
ATOM     25  C   UNL     1      -2.884  -1.244  -0.162  0.00  0.00    +0.000 A 
ATOM     26  C   UNL     1      -3.551  -0.001  -0.016  0.00  0.00    +0.124 A 
BRANCH  21  28
ATOM     27  C   UNL     1      -4.692   2.527   1.542  0.00  0.00    +0.015 C 
ATOM     28  C   UNL     1      -3.631   2.565   0.420  0.00  0.00    -0.009 C 
ATOM     29  C   UNL     1      -2.697   3.760   0.753  0.00  0.00    +0.015 C 
ATOM     30  C   UNL     1      -4.300   2.914  -0.928  0.00  0.00    +0.015 C 
ENDBRANCH  21  28
BRANCH  25  31
ATOM     31  C   UNL     1      -3.571  -2.553  -0.632  0.00  0.00    -0.009 C 
ATOM     32  C   UNL     1      -4.559  -2.321  -1.801  0.00  0.00    +0.015 C 
ATOM     33  C   UNL     1      -2.565  -3.613  -1.161  0.00  0.00    +0.015 C 
ATOM     34  C   UNL     1      -4.310  -3.196   0.559  0.00  0.00    +0.015 C 
ENDBRANCH  25  31
BRANCH  26  35
ATOM     35  O   UNL     1      -4.907   0.071  -0.190  0.00  0.00    -0.506 OA
ATOM     36  H   UNL     1      -5.298  -0.675   0.288  0.00  0.00    +0.292 HD
ENDBRANCH  26  35
ENDBRANCH  20  23
ENDBRANCH   1  20
TORSDOF 12
