REMARK  Name = 
REMARK  9 active torsions:
REMARK  status: ('A' for Active; 'I' for Inactive)
REMARK    1  A    between atoms: O_1  and  C_2
REMARK    2  A    between atoms: C_2  and  C_3
REMARK    3  A    between atoms: C_3  and  O_4
REMARK    4  A    between atoms: C_6  and  N_7
REMARK    5  A    between atoms: N_7  and  C_8
REMARK    6  A    between atoms: C_8  and  C_9
REMARK    7  A    between atoms: C_15  and  O_16
REMARK    8  A    between atoms: C_17  and  O_18
REMARK    9  A    between atoms: C_19  and  O_20
REMARK                            x       y       z     vdW  Elec       q    Type
REMARK                         _______ _______ _______ _____ _____    ______ ____
ROOT
ATOM      1  C   UNL     1      -2.578   0.343  -1.032  0.00  0.00    +0.119 C 
ATOM      2  C   UNL     1      -1.038   0.446  -1.144  0.00  0.00    +0.061 C 
ATOM      3  C   UNL     1      -0.341  -0.062   0.128  0.00  0.00    +0.088 C 
ATOM      4  C   UNL     1      -0.659  -1.569   0.352  0.00  0.00    +0.162 C 
ATOM      5  C   UNL     1      -2.049  -1.972  -0.169  0.00  0.00    +0.176 C 
ATOM      6  C   UNL     1      -3.027  -0.800  -0.094  0.00  0.00    +0.179 C 
ENDROOT
BRANCH   1   7
ATOM      7  O   UNL     1      -3.087   0.046  -2.355  0.00  0.00    -0.384 OA
ATOM      8  H   UNL     1      -2.991   0.889  -2.849  0.00  0.00    +0.210 HD
ENDBRANCH   1   7
BRANCH   3   9
ATOM      9  N   UNL     1       1.102   0.212   0.010  0.00  0.00    -0.307 NA
ATOM     10  H   UNL     1       1.490  -0.523  -0.594  0.00  0.00    +0.123 HD
BRANCH   9  11
ATOM     11  C   UNL     1       1.794   0.116   1.299  0.00  0.00    +0.118 C 
BRANCH  11  12
ATOM     12  C   UNL     1       3.264   0.404   1.155  0.00  0.00    -0.015 A 
ATOM     13  C   UNL     1       3.729   1.598   0.594  0.00  0.00    +0.008 A 
ATOM     14  C   UNL     1       5.098   1.835   0.502  0.00  0.00    +0.020 A 
ATOM     15  C   UNL     1       5.963   0.867   0.983  0.00  0.00    +0.111 A 
ATOM     16  N   UNL     1       5.558  -0.295   1.538  0.00  0.00    -0.263 NA
ATOM     17  C   UNL     1       4.221  -0.499   1.608  0.00  0.00    +0.115 A 
ENDBRANCH  11  12
ENDBRANCH   9  11
ENDBRANCH   3   9
BRANCH   4  18
ATOM     18  O   UNL     1       0.327  -2.392  -0.298  0.00  0.00    -0.388 OA
ATOM     19  H   UNL     1       0.048  -3.314  -0.139  0.00  0.00    +0.210 HD
ENDBRANCH   4  18
BRANCH   5  20
ATOM     20  O   UNL     1      -2.535  -3.072   0.614  0.00  0.00    -0.387 OA
ATOM     21  H   UNL     1      -3.497  -3.110   0.429  0.00  0.00    +0.210 HD
ENDBRANCH   5  20
BRANCH   6  22
ATOM     22  O   UNL     1      -4.333  -1.266  -0.474  0.00  0.00    -0.386 OA
ATOM     23  H   UNL     1      -4.365  -1.145  -1.449  0.00  0.00    +0.210 HD
ENDBRANCH   6  22
BRANCH   1  24
ATOM     24  C   UNL     1      -3.230   1.670  -0.594  0.00  0.00    +0.193 C 
BRANCH  24  25
ATOM     25  O   UNL     1      -2.984   2.662  -1.594  0.00  0.00    -0.392 OA
ATOM     26  H   UNL     1      -3.406   3.485  -1.288  0.00  0.00    +0.210 HD
ENDBRANCH  24  25
ENDBRANCH   1  24
TORSDOF 9
