REMARK  Name = 
REMARK  12 active torsions:
REMARK  status: ('A' for Active; 'I' for Inactive)
REMARK    1  A    between atoms: C_1  and  C_2
REMARK    2  A    between atoms: C_4  and  O_5
REMARK    3  A    between atoms: C_6  and  O_7
REMARK    4  A    between atoms: C_8  and  O_9
REMARK    5  A    between atoms: C_10  and  N_11
REMARK    6  A    between atoms: N_11  and  C_12
REMARK    7  A    between atoms: C_14  and  O_15
REMARK    8  A    between atoms: C_14  and  C_16
REMARK    9  A    between atoms: C_16  and  O_17
REMARK   10  A    between atoms: C_18  and  O_19
REMARK   11  A    between atoms: C_20  and  O_21
REMARK   12  A    between atoms: C_22  and  O_23
REMARK                            x       y       z     vdW  Elec       q    Type
REMARK                         _______ _______ _______ _____ _____    ______ ____
ROOT
ATOM      1  C   UNL     1      -0.858  -0.064  -0.062  0.00  0.00    +0.088 C 
ATOM      2  C   UNL     1      -1.966  -1.067   0.358  0.00  0.00    +0.061 C 
ATOM      3  C   UNL     1      -3.393  -0.624  -0.034  0.00  0.00    +0.119 C 
ATOM      4  C   UNL     1      -3.353   0.354  -1.232  0.00  0.00    +0.179 C 
ATOM      5  C   UNL     1      -2.569   1.637  -0.897  0.00  0.00    +0.176 C 
ATOM      6  C   UNL     1      -1.373   1.389   0.036  0.00  0.00    +0.162 C 
ENDROOT
BRANCH   1   7
ATOM      7  N   UNL     1       0.295  -0.271   0.844  0.00  0.00    -0.305 NA
ATOM      8  H   UNL     1       0.427  -1.287   0.959  0.00  0.00    +0.123 HD
BRANCH   7  15
ATOM      9  C   UNL     1       2.843  -0.542   2.393  0.00  0.00    +0.009 C 
ATOM     10  C   UNL     1       2.563   0.588   1.390  0.00  0.00    +0.008 C 
ATOM     11  C   UNL     1       3.883   1.153   0.807  0.00  0.00    +0.039 C 
ATOM     12  C   UNL     1       4.239   0.640  -0.593  0.00  0.00    +0.146 C 
ATOM     13  C   UNL     1       3.712  -0.774  -0.836  0.00  0.00    +0.173 C 
ATOM     14  C   UNL     1       2.178  -0.846  -0.723  0.00  0.00    +0.163 C 
ATOM     15  C   UNL     1       1.576   0.198   0.261  0.00  0.00    +0.088 C 
BRANCH  12  16
ATOM     16  O   UNL     1       3.670   1.494  -1.595  0.00  0.00    -0.389 OA
ATOM     17  H   UNL     1       4.059   2.381  -1.477  0.00  0.00    +0.210 HD
ENDBRANCH  12  16
BRANCH  13  18
ATOM     18  O   UNL     1       4.091  -1.221  -2.148  0.00  0.00    -0.387 OA
ATOM     19  H   UNL     1       3.935  -0.453  -2.736  0.00  0.00    +0.210 HD
ENDBRANCH  13  18
BRANCH  14  20
ATOM     20  O   UNL     1       1.805  -2.183  -0.328  0.00  0.00    -0.388 OA
ATOM     21  H   UNL     1       2.253  -2.776  -0.962  0.00  0.00    +0.210 HD
ENDBRANCH  14  20
ENDBRANCH   7  15
ENDBRANCH   1   7
BRANCH   3  22
ATOM     22  O   UNL     1      -4.022   0.018   1.099  0.00  0.00    -0.384 OA
ATOM     23  H   UNL     1      -3.407   0.707   1.438  0.00  0.00    +0.210 HD
ENDBRANCH   3  22
BRANCH   4  24
ATOM     24  O   UNL     1      -4.646   0.767  -1.701  0.00  0.00    -0.386 OA
ATOM     25  H   UNL     1      -5.259   0.012  -1.567  0.00  0.00    +0.210 HD
ENDBRANCH   4  24
BRANCH   5  26
ATOM     26  O   UNL     1      -2.117   2.208  -2.136  0.00  0.00    -0.387 OA
ATOM     27  H   UNL     1      -2.934   2.364  -2.651  0.00  0.00    +0.210 HD
ENDBRANCH   5  26
BRANCH   6  28
ATOM     28  O   UNL     1      -1.774   1.606   1.405  0.00  0.00    -0.388 OA
ATOM     29  H   UNL     1      -1.000   1.293   1.923  0.00  0.00    +0.210 HD
ENDBRANCH   6  28
BRANCH   3  30
ATOM     30  C   UNL     1      -4.264  -1.859  -0.327  0.00  0.00    +0.193 C 
BRANCH  30  31
ATOM     31  O   UNL     1      -5.619  -1.449  -0.532  0.00  0.00    -0.392 OA
ATOM     32  H   UNL     1      -5.840  -0.944   0.282  0.00  0.00    +0.210 HD
ENDBRANCH  30  31
ENDBRANCH   3  30
TORSDOF 11
