REMARK  Name = 
REMARK  11 active torsions:
REMARK  status: ('A' for Active; 'I' for Inactive)
REMARK    1  A    between atoms: O_1  and  C_2
REMARK    2  A    between atoms: C_2  and  C_3
REMARK    3  A    between atoms: C_3  and  O_4
REMARK    4  A    between atoms: C_6  and  N_7
REMARK    5  A    between atoms: N_7  and  C_8
REMARK    6  A    between atoms: C_8  and  C_9
REMARK    7  A    between atoms: C_9  and  O_10
REMARK    8  A    between atoms: C_9  and  C_11
REMARK    9  A    between atoms: C_17  and  O_18
REMARK   10  A    between atoms: C_19  and  O_20
REMARK   11  A    between atoms: C_21  and  O_22
REMARK                            x       y       z     vdW  Elec       q    Type
REMARK                         _______ _______ _______ _____ _____    ______ ____
ROOT
ATOM      1  C   UNL     1      -2.697  -0.269   0.786  0.00  0.00    +0.119 C 
ATOM      2  C   UNL     1      -1.933  -0.804  -0.446  0.00  0.00    +0.061 C 
ATOM      3  C   UNL     1      -1.209   0.301  -1.240  0.00  0.00    +0.088 C 
ATOM      4  C   UNL     1      -2.211   1.435  -1.586  0.00  0.00    +0.162 C 
ATOM      5  C   UNL     1      -2.997   1.980  -0.376  0.00  0.00    +0.176 C 
ATOM      6  C   UNL     1      -3.700   0.839   0.384  0.00  0.00    +0.179 C 
ENDROOT
BRANCH   1   7
ATOM      7  O   UNL     1      -1.725   0.281   1.707  0.00  0.00    -0.384 OA
ATOM      8  H   UNL     1      -1.410  -0.504   2.212  0.00  0.00    +0.210 HD
ENDBRANCH   1   7
BRANCH   3   9
ATOM      9  N   UNL     1      -0.024   0.838  -0.523  0.00  0.00    -0.308 NA
ATOM     10  H   UNL     1      -0.244   0.858   0.479  0.00  0.00    +0.122 HD
BRANCH   9  11
ATOM     11  C   UNL     1       1.167  -0.021  -0.713  0.00  0.00    +0.117 C 
BRANCH  11  12
ATOM     12  C   UNL     1       2.377   0.574   0.049  0.00  0.00    +0.158 C 
BRANCH  12  13
ATOM     13  C   UNL     1       3.629  -0.246  -0.164  0.00  0.00    -0.018 A 
ATOM     14  C   UNL     1       3.963  -1.265   0.742  0.00  0.00    +0.006 A 
ATOM     15  C   UNL     1       5.101  -2.050   0.542  0.00  0.00    +0.000 A 
ATOM     16  C   UNL     1       5.914  -1.831  -0.568  0.00  0.00    +0.000 A 
ATOM     17  C   UNL     1       5.592  -0.827  -1.478  0.00  0.00    +0.000 A 
ATOM     18  C   UNL     1       4.457  -0.040  -1.278  0.00  0.00    +0.006 A 
ENDBRANCH  12  13
BRANCH  12  19
ATOM     19  O   UNL     1       2.583   1.924  -0.382  0.00  0.00    -0.386 OA
ATOM     20  H   UNL     1       1.683   2.264  -0.556  0.00  0.00    +0.210 HD
ENDBRANCH  12  19
ENDBRANCH  11  12
ENDBRANCH   9  11
ENDBRANCH   3   9
BRANCH   4  21
ATOM     21  O   UNL     1      -1.517   2.508  -2.233  0.00  0.00    -0.388 OA
ATOM     22  H   UNL     1      -0.857   2.794  -1.571  0.00  0.00    +0.210 HD
ENDBRANCH   4  21
BRANCH   5  23
ATOM     23  O   UNL     1      -2.156   2.740   0.502  0.00  0.00    -0.387 OA
ATOM     24  H   UNL     1      -1.740   2.108   1.124  0.00  0.00    +0.210 HD
ENDBRANCH   5  23
BRANCH   6  25
ATOM     25  O   UNL     1      -4.752   0.283  -0.409  0.00  0.00    -0.386 OA
ATOM     26  H   UNL     1      -5.392   0.998  -0.587  0.00  0.00    +0.210 HD
ENDBRANCH   6  25
BRANCH   1  27
ATOM     27  C   UNL     1      -3.421  -1.420   1.515  0.00  0.00    +0.193 C 
BRANCH  27  28
ATOM     28  O   UNL     1      -2.432  -2.275   2.103  0.00  0.00    -0.392 OA
ATOM     29  H   UNL     1      -2.913  -3.025   2.497  0.00  0.00    +0.210 HD
ENDBRANCH  27  28
ENDBRANCH   1  27
TORSDOF 11
