REMARK  Name = 
REMARK  15 active torsions:
REMARK  status: ('A' for Active; 'I' for Inactive)
REMARK    1  A    between atoms: O_1  and  C_2
REMARK    2  A    between atoms: C_2  and  C_3
REMARK    3  A    between atoms: C_3  and  O_4
REMARK    4  A    between atoms: C_3  and  C_5
REMARK    5  A    between atoms: C_5  and  O_6
REMARK    6  A    between atoms: C_5  and  C_7
REMARK    7  A    between atoms: C_7  and  O_8
REMARK    8  A    between atoms: C_7  and  C_9
REMARK    9  A    between atoms: C_9  and  O_10
REMARK   10  A    between atoms: C_9  and  C_11
REMARK   11  A    between atoms: C_11  and  S_12
REMARK   12  A    between atoms: C_14  and  O_15
REMARK   13  A    between atoms: C_16  and  O_17
REMARK   14  A    between atoms: C_18  and  C_19
REMARK   15  A    between atoms: C_19  and  O_20
REMARK                            x       y       z     vdW  Elec       q    Type
REMARK                         _______ _______ _______ _____ _____    ______ ____
ROOT
ATOM      1  C   UNL     1       0.914   0.343  -0.926  0.00  0.00    +0.155 C 
ENDROOT
BRANCH   1   2
ATOM      2  O   UNL     1       0.989   1.542  -0.146  0.00  0.00    -0.388 OA
ATOM      3  H   UNL     1       0.424   2.181  -0.617  0.00  0.00    +0.210 HD
ENDBRANCH   1   2
BRANCH   1   4
ATOM      4  C   UNL     1       2.176  -0.521  -0.731  0.00  0.00    +0.175 C 
BRANCH   4   5
ATOM      5  O   UNL     1       2.100  -1.638  -1.645  0.00  0.00    -0.387 OA
ATOM      6  H   UNL     1       3.022  -1.957  -1.739  0.00  0.00    +0.210 HD
ENDBRANCH   4   5
BRANCH   4   7
ATOM      7  C   UNL     1       3.510   0.206  -1.006  0.00  0.00    +0.176 C 
BRANCH   7   8
ATOM      8  O   UNL     1       4.540  -0.822  -1.032  0.00  0.00    -0.387 OA
ATOM      9  H   UNL     1       4.743  -1.025  -0.086  0.00  0.00    +0.210 HD
ENDBRANCH   7   8
BRANCH   7  10
ATOM     10  C   UNL     1       3.925   1.313  -0.011  0.00  0.00    +0.171 C 
BRANCH  10  11
ATOM     11  O   UNL     1       5.250   1.753  -0.374  0.00  0.00    -0.387 OA
ATOM     12  H   UNL     1       5.783   0.931  -0.437  0.00  0.00    +0.210 HD
ENDBRANCH  10  11
BRANCH  10  13
ATOM     13  C   UNL     1       3.971   0.852   1.461  0.00  0.00    +0.189 C 
BRANCH  13  14
ATOM     14  O   UNL     1       4.727  -0.368   1.566  0.00  0.00    -0.392 OA
ATOM     15  H   UNL     1       4.878  -0.529   2.526  0.00  0.00    +0.210 HD
ENDBRANCH  13  14
ENDBRANCH  10  13
ENDBRANCH   7  10
ENDBRANCH   4   7
ENDBRANCH   1   4
BRANCH   1  16
ATOM     16  C   UNL     1      -0.349  -0.438  -0.521  0.00  0.00    +0.093 C 
BRANCH  16  17
ATOM     17  S   UNL     1      -1.863   0.294  -1.274  0.00  0.00    -0.195 S 
ATOM     18  C   UNL     1      -2.340   1.443   0.083  0.00  0.00    +0.093 C 
ATOM     19  C   UNL     1      -3.348   0.743   0.992  0.00  0.00    +0.153 C 
ATOM     20  C   UNL     1      -4.101  -0.251   0.099  0.00  0.00    +0.158 C 
ATOM     21  C   UNL     1      -3.007  -1.013  -0.641  0.00  0.00    +0.094 C 
BRANCH  19  22
ATOM     22  O   UNL     1      -4.292   1.658   1.553  0.00  0.00    -0.388 OA
ATOM     23  H   UNL     1      -3.802   2.345   2.041  0.00  0.00    +0.210 HD
ENDBRANCH  19  22
BRANCH  20  24
ATOM     24  O   UNL     1      -4.899  -1.135   0.888  0.00  0.00    -0.388 OA
ATOM     25  H   UNL     1      -5.432  -0.546   1.466  0.00  0.00    +0.210 HD
ENDBRANCH  20  24
BRANCH  21  26
ATOM     26  C   UNL     1      -3.558  -1.894  -1.768  0.00  0.00    +0.171 C 
BRANCH  26  27
ATOM     27  O   UNL     1      -4.340  -2.964  -1.236  0.00  0.00    -0.394 OA
ATOM     28  H   UNL     1      -4.838  -2.609  -0.462  0.00  0.00    +0.209 HD
ENDBRANCH  26  27
ENDBRANCH  21  26
ENDBRANCH  16  17
ENDBRANCH   1  16
TORSDOF 15
REMARK  Name = 
REMARK  15 active torsions:
REMARK  status: ('A' for Active; 'I' for Inactive)
REMARK    1  A    between atoms: O_1  and  C_2
REMARK    2  A    between atoms: C_2  and  C_3
REMARK    3  A    between atoms: C_3  and  O_4
REMARK    4  A    between atoms: C_3  and  C_5
REMARK    5  A    between atoms: C_5  and  O_6
REMARK    6  A    between atoms: C_5  and  C_7
REMARK    7  A    between atoms: C_7  and  O_8
REMARK    8  A    between atoms: C_7  and  C_9
REMARK    9  A    between atoms: C_9  and  O_10
REMARK   10  A    between atoms: C_9  and  C_11
REMARK   11  A    between atoms: C_11  and  S_12
REMARK   12  A    between atoms: C_14  and  O_15
REMARK   13  A    between atoms: C_16  and  O_17
REMARK   14  A    between atoms: C_18  and  C_19
REMARK   15  A    between atoms: C_19  and  O_20
REMARK                            x       y       z     vdW  Elec       q    Type
REMARK                         _______ _______ _______ _____ _____    ______ ____
ROOT
ATOM      1 CL   UNL     1       0.000   0.000   0.000  0.00  0.00    +0.000 Cl
ENDROOT
TORSDOF 0
