REMARK  Name = 
REMARK  11 active torsions:
REMARK  status: ('A' for Active; 'I' for Inactive)
REMARK    1  A    between atoms: O_1  and  C_2
REMARK    2  A    between atoms: C_2  and  CA_3
REMARK    3  A    between atoms: CA_3  and  N_4
REMARK    4  A    between atoms: CA_3  and  C_17
REMARK    5  A    between atoms: N_4  and  C_5
REMARK    6  A    between atoms: C_7  and  O_8
REMARK    7  A    between atoms: C_7  and  C_9
REMARK    8  A    between atoms: C_9  and  O_10
REMARK    9  A    between atoms: C_11  and  O_12
REMARK   10  A    between atoms: C_13  and  O_14
REMARK   11  A    between atoms: C_15  and  O_16
REMARK                            x       y       z     vdW  Elec       q    Type
REMARK                         _______ _______ _______ _____ _____    ______ ____
ROOT
ATOM      1  C   UNL     1      -0.503  -0.358  -0.400  0.00  0.00    +0.088 C 
ATOM      2  C   UNL     1      -1.235   0.910   0.074  0.00  0.00    +0.061 C 
ATOM      3  C   UNL     1      -2.752   0.669   0.259  0.00  0.00    +0.119 C 
ATOM      4  C   UNL     1      -3.240  -0.599  -0.485  0.00  0.00    +0.179 C 
ATOM      5  C   UNL     1      -2.607  -0.666  -1.876  0.00  0.00    +0.176 C 
ATOM      6  C   UNL     1      -1.071  -0.791  -1.791  0.00  0.00    +0.162 C 
ENDROOT
BRANCH   1   7
ATOM      7  N   UNL     1       0.958  -0.238  -0.517  0.00  0.00    -0.302 NA
ATOM      8  H   UNL     1       1.155   0.401  -1.294  0.00  0.00    +0.123 HD
BRANCH   7   9
ATOM      9  CA  UNL     1       1.685   0.213   0.682  0.00  0.00    +0.110 C 
BRANCH   9  10
ATOM     10  C   UNL     1       3.167   0.359   0.349  0.00  0.00    -0.028 A 
ATOM     11  C   UNL     1       3.837   1.560   0.630  0.00  0.00    +0.005 A 
ATOM     12  C   UNL     1       5.197   1.699   0.347  0.00  0.00    +0.000 A 
ATOM     13  C   UNL     1       5.905   0.641  -0.219  0.00  0.00    +0.000 A 
ATOM     14  C   UNL     1       5.254  -0.557  -0.505  0.00  0.00    +0.000 A 
ATOM     15  C   UNL     1       3.894  -0.699  -0.223  0.00  0.00    +0.005 A 
ENDBRANCH   9  10
BRANCH   9  16
ATOM     16  C   UNL     1       1.533  -0.731   1.906  0.00  0.00    +0.179 C 
BRANCH  16  17
ATOM     17  O   UNL     1       0.253  -0.598   2.533  0.00  0.00    -0.393 OA
ATOM     18  H   UNL     1       0.287  -1.146   3.337  0.00  0.00    +0.209 HD
ENDBRANCH  16  17
ENDBRANCH   9  16
ENDBRANCH   7   9
ENDBRANCH   1   7
BRANCH   3  19
ATOM     19  O   UNL     1      -3.426   1.814  -0.303  0.00  0.00    -0.384 OA
ATOM     20  H   UNL     1      -4.365   1.718  -0.046  0.00  0.00    +0.210 HD
ENDBRANCH   3  19
BRANCH   4  21
ATOM     21  O   UNL     1      -4.676  -0.602  -0.574  0.00  0.00    -0.386 OA
ATOM     22  H   UNL     1      -4.890  -1.012  -1.438  0.00  0.00    +0.210 HD
ENDBRANCH   4  21
BRANCH   5  23
ATOM     23  O   UNL     1      -3.170  -1.774  -2.602  0.00  0.00    -0.387 OA
ATOM     24  H   UNL     1      -2.870  -2.602  -2.184  0.00  0.00    +0.210 HD
ENDBRANCH   5  23
BRANCH   6  25
ATOM     25  O   UNL     1      -0.490   0.010  -2.836  0.00  0.00    -0.388 OA
ATOM     26  H   UNL     1      -0.864  -0.309  -3.677  0.00  0.00    +0.210 HD
ENDBRANCH   6  25
BRANCH   3  27
ATOM     27  C   UNL     1      -3.148   0.595   1.751  0.00  0.00    +0.193 C 
BRANCH  27  28
ATOM     28  O   UNL     1      -4.570   0.528   1.910  0.00  0.00    -0.392 OA
ATOM     29  H   UNL     1      -4.923  -0.064   1.212  0.00  0.00    +0.210 HD
ENDBRANCH  27  28
ENDBRANCH   3  27
TORSDOF 11
