REMARK  Name = 
REMARK  17 active torsions:
REMARK  status: ('A' for Active; 'I' for Inactive)
REMARK    1  A    between atoms: O_2  and  C_3
REMARK    2  A    between atoms: C_3  and  C_4
REMARK    3  A    between atoms: C_5  and  O_6
REMARK    4  A    between atoms: C_7  and  O_8
REMARK    5  A    between atoms: N_10  and  C_11
REMARK    6  A    between atoms: C_11  and  C_12
REMARK    7  A    between atoms: C_12  and  O_13
REMARK    8  A    between atoms: C_12  and  C_14
REMARK    9  A    between atoms: C_14  and  O_15
REMARK   10  A    between atoms: C_14  and  C_16
REMARK   11  A    between atoms: C_16  and  O_17
REMARK   12  A    between atoms: C_16  and  C_18
REMARK   13  A    between atoms: C_18  and  O_19
REMARK   14  A    between atoms: C_18  and  C_20
REMARK   15  A    between atoms: C_20  and  O_21
REMARK   16  A    between atoms: C_20  and  C_22
REMARK   17  A    between atoms: C_22  and  O_23
REMARK                            x       y       z     vdW  Elec       q    Type
REMARK                         _______ _______ _______ _____ _____    ______ ____
ROOT
ATOM      1 CL   UNL     1       0.683   0.000   0.000  0.00  0.00    -0.145 Cl
ATOM      2  H   UNL     1      -0.683   0.000   0.000  0.00  0.00    +0.145 HD
ENDROOT
TORSDOF 0
REMARK  Name = 
REMARK  17 active torsions:
REMARK  status: ('A' for Active; 'I' for Inactive)
REMARK    1  A    between atoms: O_2  and  C_3
REMARK    2  A    between atoms: C_3  and  C_4
REMARK    3  A    between atoms: C_5  and  O_6
REMARK    4  A    between atoms: C_7  and  O_8
REMARK    5  A    between atoms: N_10  and  C_11
REMARK    6  A    between atoms: C_11  and  C_12
REMARK    7  A    between atoms: C_12  and  O_13
REMARK    8  A    between atoms: C_12  and  C_14
REMARK    9  A    between atoms: C_14  and  O_15
REMARK   10  A    between atoms: C_14  and  C_16
REMARK   11  A    between atoms: C_16  and  O_17
REMARK   12  A    between atoms: C_16  and  C_18
REMARK   13  A    between atoms: C_18  and  O_19
REMARK   14  A    between atoms: C_18  and  C_20
REMARK   15  A    between atoms: C_20  and  O_21
REMARK   16  A    between atoms: C_20  and  C_22
REMARK   17  A    between atoms: C_22  and  O_23
REMARK                            x       y       z     vdW  Elec       q    Type
REMARK                         _______ _______ _______ _____ _____    ______ ____
ROOT
ATOM      1  C   UNL     1       0.039   0.329  -0.105  0.00  0.00    +0.159 C 
ENDROOT
BRANCH   1   2
ATOM      2  O   UNL     1       0.322   1.701   0.066  0.00  0.00    -0.388 OA
ATOM      3  H   UNL     1      -0.449   2.113   0.495  0.00  0.00    +0.210 HD
ENDBRANCH   1   2
BRANCH   1   4
ATOM      4  C   UNL     1       1.291  -0.383   0.369  0.00  0.00    +0.175 C 
BRANCH   4   5
ATOM      5  O   UNL     1       1.056  -1.748   0.217  0.00  0.00    -0.387 OA
ATOM      6  H   UNL     1       0.328  -1.919  -0.448  0.00  0.00    +0.210 HD
ENDBRANCH   4   5
BRANCH   4   7
ATOM      7  C   UNL     1       2.385   0.062  -0.595  0.00  0.00    +0.176 C 
BRANCH   7   8
ATOM      8  O   UNL     1       1.901  -0.230  -1.869  0.00  0.00    -0.386 OA
ATOM      9  H   UNL     1       1.814  -1.229  -1.885  0.00  0.00    +0.210 HD
ENDBRANCH   7   8
BRANCH   7  10
ATOM     10  C   UNL     1       3.644  -0.739  -0.424  0.00  0.00    +0.176 C 
BRANCH  10  11
ATOM     11  O   UNL     1       3.342  -2.090  -0.549  0.00  0.00    -0.386 OA
ATOM     12  H   UNL     1       3.119  -2.501   0.319  0.00  0.00    +0.210 HD
ENDBRANCH  10  11
BRANCH  10  13
ATOM     13  C   UNL     1       4.386  -0.448   0.861  0.00  0.00    +0.171 C 
BRANCH  13  14
ATOM     14  O   UNL     1       5.567  -1.216   0.790  0.00  0.00    -0.387 OA
ATOM     15  H   UNL     1       5.804  -1.593   1.671  0.00  0.00    +0.210 HD
ENDBRANCH  13  14
BRANCH  13  16
ATOM     16  C   UNL     1       4.850   0.994   0.873  0.00  0.00    +0.189 C 
BRANCH  16  17
ATOM     17  O   UNL     1       5.576   1.265  -0.309  0.00  0.00    -0.392 OA
ATOM     18  H   UNL     1       6.038   0.446  -0.634  0.00  0.00    +0.210 HD
ENDBRANCH  16  17
ENDBRANCH  13  16
ENDBRANCH  10  13
ENDBRANCH   7  10
ENDBRANCH   4   7
ENDBRANCH   1   4
BRANCH   1  19
ATOM     19  C   UNL     1      -1.145  -0.047   0.756  0.00  0.00    +0.119 C 
BRANCH  19  24
ATOM     20  C   UNL     1      -2.776   0.534  -0.925  0.00  0.00    +0.113 C 
ATOM     21  C   UNL     1      -3.704  -0.673  -0.920  0.00  0.00    +0.163 C 
ATOM     22  C   UNL     1      -4.351  -0.540   0.441  0.00  0.00    +0.158 C 
ATOM     23  C   UNL     1      -3.443   0.311   1.267  0.00  0.00    +0.119 C 
ATOM     24  N   UNL     1      -2.313   0.690   0.421  0.00  0.00    -0.290 NA
BRANCH  22  25
ATOM     25  O   UNL     1      -5.647  -0.025   0.315  0.00  0.00    -0.388 OA
ATOM     26  H   UNL     1      -6.061  -0.321  -0.543  0.00  0.00    +0.210 HD
ENDBRANCH  22  25
BRANCH  21  27
ATOM     27  O   UNL     1      -2.921  -1.821  -1.009  0.00  0.00    -0.388 OA
ATOM     28  H   UNL     1      -3.216  -2.541  -0.412  0.00  0.00    +0.210 HD
ENDBRANCH  21  27
BRANCH  20  29
ATOM     29  C   UNL     1      -3.612   1.721  -1.386  0.00  0.00    +0.177 C 
BRANCH  29  30
ATOM     30  O   UNL     1      -2.892   2.912  -1.343  0.00  0.00    -0.393 OA
ATOM     31  H   UNL     1      -1.962   2.683  -1.596  0.00  0.00    +0.209 HD
ENDBRANCH  29  30
ENDBRANCH  20  29
ENDBRANCH  19  24
ENDBRANCH   1  19
TORSDOF 17
