REMARK  Name = 
REMARK  11 active torsions:
REMARK  status: ('A' for Active; 'I' for Inactive)
REMARK    1  A    between atoms: O_1  and  C_2
REMARK    2  A    between atoms: C_2  and  N_3
REMARK    3  A    between atoms: N_3  and  C_4
REMARK    4  A    between atoms: N_3  and  C_6
REMARK    5  A    between atoms: C_4  and  O_5
REMARK    6  A    between atoms: C_8  and  O_9
REMARK    7  A    between atoms: C_8  and  C_10
REMARK    8  A    between atoms: C_10  and  O_11
REMARK    9  A    between atoms: C_12  and  O_13
REMARK   10  A    between atoms: C_14  and  O_15
REMARK   11  A    between atoms: C_16  and  O_17
REMARK                            x       y       z     vdW  Elec       q    Type
REMARK                         _______ _______ _______ _____ _____    ______ ____
ROOT
ATOM      1  C   UNL     1       0.749   0.550  -0.489  0.00  0.00    +0.095 C 
ATOM      2  C   UNL     1      -0.059  -0.736  -0.815  0.00  0.00    +0.061 C 
ATOM      3  C   UNL     1      -1.409  -0.884  -0.091  0.00  0.00    +0.119 C 
ATOM      4  C   UNL     1      -2.275   0.409  -0.086  0.00  0.00    +0.179 C 
ATOM      5  C   UNL     1      -1.559   1.649  -0.649  0.00  0.00    +0.176 C 
ATOM      6  C   UNL     1      -0.144   1.752  -0.068  0.00  0.00    +0.163 C 
ENDROOT
BRANCH   3   7
ATOM      7  O   UNL     1      -1.137  -1.300   1.267  0.00  0.00    -0.384 OA
ATOM      8  H   UNL     1      -1.903  -0.979   1.790  0.00  0.00    +0.210 HD
ENDBRANCH   3   7
BRANCH   4   9
ATOM      9  O   UNL     1      -2.712   0.657   1.266  0.00  0.00    -0.386 OA
ATOM     10  H   UNL     1      -1.974   1.149   1.697  0.00  0.00    +0.210 HD
ENDBRANCH   4   9
BRANCH   5  11
ATOM     11  O   UNL     1      -1.518   1.603  -2.075  0.00  0.00    -0.387 OA
ATOM     12  H   UNL     1      -2.397   1.869  -2.400  0.00  0.00    +0.210 HD
ENDBRANCH   5  11
BRANCH   6  13
ATOM     13  O   UNL     1      -0.242   1.879   1.358  0.00  0.00    -0.388 OA
ATOM     14  H   UNL     1       0.691   1.937   1.649  0.00  0.00    +0.210 HD
ENDBRANCH   6  13
BRANCH   1  15
ATOM     15  N   UNL     1       1.945   0.426   0.403  0.00  0.00    -0.252 NA
BRANCH  15  16
ATOM     16  C   UNL     1       3.107  -0.016  -0.369  0.00  0.00    +0.245 C 
BRANCH  16  17
ATOM     17  O   UNL     1       3.490   0.994  -1.288  0.00  0.00    -0.380 OA
ATOM     18  H   UNL     1       4.304   0.680  -1.715  0.00  0.00    +0.211 HD
ENDBRANCH  16  17
ENDBRANCH  15  16
BRANCH  15  19
ATOM     19  C   UNL     1       1.754  -0.472   1.533  0.00  0.00    +0.245 C 
BRANCH  19  20
ATOM     20  O   UNL     1       2.821  -0.282   2.446  0.00  0.00    -0.380 OA
ATOM     21  H   UNL     1       3.007   0.670   2.392  0.00  0.00    +0.211 HD
ENDBRANCH  19  20
ENDBRANCH  15  19
ENDBRANCH   1  15
BRANCH   3  22
ATOM     22  C   UNL     1      -2.221  -2.044  -0.711  0.00  0.00    +0.193 C 
BRANCH  22  23
ATOM     23  O   UNL     1      -1.496  -3.271  -0.611  0.00  0.00    -0.392 OA
ATOM     24  H   UNL     1      -1.137  -3.280   0.300  0.00  0.00    +0.210 HD
ENDBRANCH  22  23
ENDBRANCH   3  22
TORSDOF 11
