REMARK  Name = 
REMARK  12 active torsions:
REMARK  status: ('A' for Active; 'I' for Inactive)
REMARK    1  A    between atoms: O_1  and  C_2
REMARK    2  A    between atoms: C_2  and  CA_3
REMARK    3  A    between atoms: CA_3  and  CB_4
REMARK    4  A    between atoms: CA_3  and  N_6
REMARK    5  A    between atoms: CB_4  and  OG_5
REMARK    6  A    between atoms: N_6  and  C_7
REMARK    7  A    between atoms: C_9  and  O_10
REMARK    8  A    between atoms: C_9  and  C_11
REMARK    9  A    between atoms: C_11  and  O_12
REMARK   10  A    between atoms: C_13  and  O_14
REMARK   11  A    between atoms: C_15  and  O_16
REMARK   12  A    between atoms: C_17  and  O_18
REMARK                            x       y       z     vdW  Elec       q    Type
REMARK                         _______ _______ _______ _____ _____    ______ ____
ROOT
ATOM      1  C   UNK A   0       0.319   0.531  -1.005  0.00  0.00    +0.088 C 
ATOM      2  C   UNK A   0      -0.490  -0.780  -1.097  0.00  0.00    +0.061 C 
ATOM      3  C   UNK A   0      -1.583  -0.982  -0.021  0.00  0.00    +0.119 C 
ATOM      4  C   UNK A   0      -2.486   0.271   0.088  0.00  0.00    +0.179 C 
ATOM      5  C   UNK A   0      -1.659   1.552   0.261  0.00  0.00    +0.176 C 
ATOM      6  C   UNK A   0      -0.655   1.729  -0.881  0.00  0.00    +0.162 C 
ENDROOT
BRANCH   1   7
ATOM      7  N   SER A   1       1.272   0.546   0.121  0.00  0.00    -0.304 NA
ATOM      8  H   SER A   1       1.339   1.529   0.421  0.00  0.00    +0.123 HD
BRANCH   7   9
ATOM      9  CA  SER A   1       2.665   0.159  -0.219  0.00  0.00    +0.105 C 
BRANCH   9  10
ATOM     10  C   SER A   1       3.501   0.143   1.084  0.00  0.00    +0.176 C 
BRANCH  10  11
ATOM     11  O   SER A   1       3.240   1.310   1.868  0.00  0.00    -0.393 OA
ATOM     12  H   SER A   1       2.322   1.196   2.177  0.00  0.00    +0.209 HD
ENDBRANCH  10  11
ENDBRANCH   9  10
BRANCH   9  13
ATOM     13  CB  SER A   1       2.852  -1.184  -0.953  0.00  0.00    +0.176 C 
BRANCH  13  14
ATOM     14  OG  SER A   1       4.222  -1.421  -1.271  0.00  0.00    -0.393 OA
ATOM     15  H   SER A   1       4.516  -0.704  -1.859  0.00  0.00    +0.209 HD
ENDBRANCH  13  14
ENDBRANCH   9  13
ENDBRANCH   7   9
ENDBRANCH   1   7
BRANCH   3  16
ATOM     16  O   UNK A   0      -0.970  -1.212   1.255  0.00  0.00    -0.384 OA
ATOM     17  H   UNK A   0      -1.728  -1.426   1.842  0.00  0.00    +0.210 HD
ENDBRANCH   3  16
BRANCH   4  18
ATOM     18  O   UNK A   0      -3.397   0.176   1.192  0.00  0.00    -0.386 OA
ATOM     19  H   UNK A   0      -3.611   1.088   1.467  0.00  0.00    +0.210 HD
ENDBRANCH   4  18
BRANCH   5  20
ATOM     20  O   UNK A   0      -2.544   2.694   0.289  0.00  0.00    -0.387 OA
ATOM     21  H   UNK A   0      -3.063   2.701  -0.535  0.00  0.00    +0.210 HD
ENDBRANCH   5  20
BRANCH   6  22
ATOM     22  O   UNK A   0       0.091   2.940  -0.681  0.00  0.00    -0.388 OA
ATOM     23  H   UNK A   0      -0.521   3.573  -0.256  0.00  0.00    +0.210 HD
ENDBRANCH   6  22
BRANCH   3  24
ATOM     24  C   UNK A   0      -2.385  -2.263  -0.361  0.00  0.00    +0.193 C 
BRANCH  24  25
ATOM     25  O   UNK A   0      -3.242  -2.639   0.714  0.00  0.00    -0.392 OA
ATOM     26  H   UNK A   0      -3.684  -3.466   0.459  0.00  0.00    +0.210 HD
ENDBRANCH  24  25
ENDBRANCH   3  24
TORSDOF 12
