REMARK  Name = 
REMARK  9 active torsions:
REMARK  status: ('A' for Active; 'I' for Inactive)
REMARK    1  A    between atoms: O_1  and  C_2
REMARK    2  A    between atoms: C_2  and  C_3
REMARK    3  A    between atoms: C_3  and  O_4
REMARK    4  A    between atoms: C_6  and  N_7
REMARK    5  A    between atoms: N_7  and  C_8
REMARK    6  A    between atoms: C_13  and  O_14
REMARK    7  A    between atoms: C_15  and  O_16
REMARK    8  A    between atoms: C_17  and  O_18
REMARK    9  A    between atoms: C_19  and  O_20
REMARK                            x       y       z     vdW  Elec       q    Type
REMARK                         _______ _______ _______ _____ _____    ______ ____
ROOT
ATOM      1  C   UNL     1      -2.518  -0.908   0.847  0.00  0.00    +0.119 C 
ATOM      2  C   UNL     1      -1.070  -0.468   1.159  0.00  0.00    +0.061 C 
ATOM      3  C   UNL     1      -0.511   0.522   0.126  0.00  0.00    +0.088 C 
ATOM      4  C   UNL     1      -1.416   1.785   0.010  0.00  0.00    +0.162 C 
ATOM      5  C   UNL     1      -2.914   1.487   0.192  0.00  0.00    +0.176 C 
ATOM      6  C   UNL     1      -3.215   0.032  -0.166  0.00  0.00    +0.179 C 
ENDROOT
BRANCH   1   7
ATOM      7  O   UNL     1      -3.240  -0.838   2.094  0.00  0.00    -0.384 OA
ATOM      8  H   UNL     1      -4.123  -1.219   1.906  0.00  0.00    +0.210 HD
ENDBRANCH   1   7
BRANCH   3   9
ATOM      9  N   UNL     1       0.862   0.908   0.511  0.00  0.00    -0.305 NA
ATOM     10  H   UNL     1       0.899   1.933   0.558  0.00  0.00    +0.123 HD
BRANCH   9  11
ATOM     11  C   UNL     1       1.901   0.444  -0.432  0.00  0.00    +0.082 C 
ATOM     12  C   UNL     1       2.029  -1.093  -0.392  0.00  0.00    +0.021 C 
ATOM     13  C   UNL     1       3.338  -1.560  -1.018  0.00  0.00    +0.002 C 
ATOM     14  C   UNL     1       4.553  -1.042  -0.250  0.00  0.00    +0.003 C 
ATOM     15  C   UNL     1       4.265   0.224   0.561  0.00  0.00    +0.033 C 
ATOM     16  C   UNL     1       3.265   1.144  -0.134  0.00  0.00    +0.131 C 
BRANCH  16  17
ATOM     17  O   UNL     1       3.850   1.606  -1.358  0.00  0.00    -0.390 OA
ATOM     18  H   UNL     1       3.286   2.322  -1.696  0.00  0.00    +0.210 HD
ENDBRANCH  16  17
ENDBRANCH   9  11
ENDBRANCH   3   9
BRANCH   4  19
ATOM     19  O   UNL     1      -1.027   2.795   0.958  0.00  0.00    -0.388 OA
ATOM     20  H   UNL     1      -0.884   2.346   1.814  0.00  0.00    +0.210 HD
ENDBRANCH   4  19
BRANCH   5  21
ATOM     21  O   UNL     1      -3.696   2.342  -0.658  0.00  0.00    -0.387 OA
ATOM     22  H   UNL     1      -3.457   3.256  -0.409  0.00  0.00    +0.210 HD
ENDBRANCH   5  21
BRANCH   6  23
ATOM     23  O   UNL     1      -4.633  -0.205  -0.167  0.00  0.00    -0.386 OA
ATOM     24  H   UNL     1      -5.022   0.622  -0.526  0.00  0.00    +0.210 HD
ENDBRANCH   6  23
BRANCH   1  25
ATOM     25  C   UNL     1      -2.589  -2.372   0.360  0.00  0.00    +0.193 C 
BRANCH  25  26
ATOM     26  O   UNL     1      -3.942  -2.815   0.223  0.00  0.00    -0.392 OA
ATOM     27  H   UNL     1      -4.466  -2.076  -0.154  0.00  0.00    +0.210 HD
ENDBRANCH  25  26
ENDBRANCH   1  25
TORSDOF 9
