REMARK  Name = 
REMARK  17 active torsions:
REMARK  status: ('A' for Active; 'I' for Inactive)
REMARK    1  A    between atoms: O_1  and  C_2
REMARK    2  A    between atoms: C_2  and  C_3
REMARK    3  A    between atoms: C_4  and  O_5
REMARK    4  A    between atoms: C_6  and  O_7
REMARK    5  A    between atoms: S_9  and  C_10
REMARK    6  A    between atoms: C_10  and  C_11
REMARK    7  A    between atoms: C_11  and  O_12
REMARK    8  A    between atoms: C_11  and  C_13
REMARK    9  A    between atoms: C_13  and  O_14
REMARK   10  A    between atoms: C_13  and  C_15
REMARK   11  A    between atoms: C_15  and  O_16
REMARK   12  A    between atoms: C_15  and  C_17
REMARK   13  A    between atoms: C_17  and  O_18
REMARK   14  A    between atoms: C_17  and  C_19
REMARK   15  A    between atoms: C_19  and  O_20
REMARK   16  A    between atoms: C_19  and  C_21
REMARK   17  A    between atoms: C_21  and  O_22
REMARK                            x       y       z     vdW  Elec       q    Type
REMARK                         _______ _______ _______ _____ _____    ______ ____
ROOT
ATOM      1  C   UNL     1      -0.469   0.837  -0.119  0.00  0.00    +0.155 C 
ENDROOT
BRANCH   1   2
ATOM      2  O   UNL     1      -0.153   2.191   0.243  0.00  0.00    -0.388 OA
ATOM      3  H   UNL     1       0.258   2.154   1.125  0.00  0.00    +0.210 HD
ENDBRANCH   1   2
BRANCH   1   4
ATOM      4  C   UNL     1      -1.357   0.874  -1.384  0.00  0.00    +0.175 C 
BRANCH   4   5
ATOM      5  O   UNL     1      -0.546   1.172  -2.542  0.00  0.00    -0.387 OA
ATOM      6  H   UNL     1      -1.154   1.074  -3.304  0.00  0.00    +0.210 HD
ENDBRANCH   4   5
BRANCH   4   7
ATOM      7  C   UNL     1      -2.109  -0.435  -1.682  0.00  0.00    +0.176 C 
BRANCH   7   8
ATOM      8  O   UNL     1      -2.866  -0.237  -2.895  0.00  0.00    -0.386 OA
ATOM      9  H   UNL     1      -3.284  -1.106  -3.072  0.00  0.00    +0.210 HD
ENDBRANCH   7   8
BRANCH   7  10
ATOM     10  C   UNL     1      -3.042  -0.988  -0.592  0.00  0.00    +0.176 C 
BRANCH  10  11
ATOM     11  O   UNL     1      -3.396  -2.328  -1.023  0.00  0.00    -0.386 OA
ATOM     12  H   UNL     1      -4.114  -2.598  -0.409  0.00  0.00    +0.210 HD
ENDBRANCH  10  11
BRANCH  10  13
ATOM     13  C   UNL     1      -4.378  -0.260  -0.352  0.00  0.00    +0.171 C 
BRANCH  13  14
ATOM     14  O   UNL     1      -5.111  -1.071   0.601  0.00  0.00    -0.387 OA
ATOM     15  H   UNL     1      -5.843  -0.486   0.898  0.00  0.00    +0.210 HD
ENDBRANCH  13  14
BRANCH  13  16
ATOM     16  C   UNL     1      -4.284   1.154   0.218  0.00  0.00    +0.189 C 
BRANCH  16  17
ATOM     17  O   UNL     1      -5.590   1.538   0.664  0.00  0.00    -0.392 OA
ATOM     18  H   UNL     1      -5.523   2.461   0.973  0.00  0.00    +0.210 HD
ENDBRANCH  16  17
ENDBRANCH  13  16
ENDBRANCH  10  13
ENDBRANCH   7  10
ENDBRANCH   4   7
ENDBRANCH   1   4
BRANCH   1  19
ATOM     19  C   UNL     1       0.824   0.035  -0.339  0.00  0.00    +0.093 C 
BRANCH  19  24
ATOM     20  C   UNL     1       3.115  -1.261   0.533  0.00  0.00    +0.094 C 
ATOM     21  C   UNL     1       4.355  -0.393   0.247  0.00  0.00    +0.158 C 
ATOM     22  C   UNL     1       4.278   0.859   1.128  0.00  0.00    +0.153 C 
ATOM     23  C   UNL     1       2.837   1.348   1.043  0.00  0.00    +0.093 C 
ATOM     24  S   UNL     1       1.774  -0.143   1.222  0.00  0.00    -0.195 S 
BRANCH  22  25
ATOM     25  O   UNL     1       4.602   0.545   2.485  0.00  0.00    -0.388 OA
ATOM     26  H   UNL     1       4.669   1.389   2.970  0.00  0.00    +0.210 HD
ENDBRANCH  22  25
BRANCH  21  27
ATOM     27  O   UNL     1       4.407  -0.021  -1.136  0.00  0.00    -0.388 OA
ATOM     28  H   UNL     1       3.548   0.345  -1.408  0.00  0.00    +0.210 HD
ENDBRANCH  21  27
BRANCH  20  29
ATOM     29  C   UNL     1       3.366  -2.414   1.522  0.00  0.00    +0.171 C 
BRANCH  29  30
ATOM     30  O   UNL     1       4.061  -2.062   2.711  0.00  0.00    -0.394 OA
ATOM     31  H   UNL     1       4.053  -1.087   2.814  0.00  0.00    +0.209 HD
ENDBRANCH  29  30
ENDBRANCH  20  29
ENDBRANCH  19  24
ENDBRANCH   1  19
TORSDOF 17
REMARK  Name = 
REMARK  17 active torsions:
REMARK  status: ('A' for Active; 'I' for Inactive)
REMARK    1  A    between atoms: O_1  and  C_2
REMARK    2  A    between atoms: C_2  and  C_3
REMARK    3  A    between atoms: C_4  and  O_5
REMARK    4  A    between atoms: C_6  and  O_7
REMARK    5  A    between atoms: S_9  and  C_10
REMARK    6  A    between atoms: C_10  and  C_11
REMARK    7  A    between atoms: C_11  and  O_12
REMARK    8  A    between atoms: C_11  and  C_13
REMARK    9  A    between atoms: C_13  and  O_14
REMARK   10  A    between atoms: C_13  and  C_15
REMARK   11  A    between atoms: C_15  and  O_16
REMARK   12  A    between atoms: C_15  and  C_17
REMARK   13  A    between atoms: C_17  and  O_18
REMARK   14  A    between atoms: C_17  and  C_19
REMARK   15  A    between atoms: C_19  and  O_20
REMARK   16  A    between atoms: C_19  and  C_21
REMARK   17  A    between atoms: C_21  and  O_22
REMARK                            x       y       z     vdW  Elec       q    Type
REMARK                         _______ _______ _______ _____ _____    ______ ____
ROOT
ATOM      1 CL   UNL     1       0.000   0.000   0.000  0.00  0.00    +0.000 Cl
ENDROOT
TORSDOF 0
